LAMMPS description

147     atoms

1       atom types

-50.000000 50.000000 xlo xhi
-50.000000 50.000000 ylo yhi
-50.000000 50.000000 zlo zhi

Atoms

  1 1   0.000000000000   0.000000000000   0.000000000000
  2 1  -0.000002182565   0.000003055875   1.035479354628
  3 1   0.286198486204  -0.880829980952   0.463083647978
  4 1  -0.749280871326  -0.544382352515   0.463080472499
  5 1  -0.749280880703   0.544385072857   0.463077259362
  6 1   0.286198471032   0.880832719143   0.463078449013
  7 1   0.926159914429   0.000001374611   0.463082397394
  8 1  -0.286198471032  -0.880832719143  -0.463078449013
  9 1  -0.926159914429  -0.000001374611  -0.463082397394
 10 1  -0.286198486204   0.880829980952  -0.463083647978
 11 1   0.749280871326   0.544382352515  -0.463080472499
 12 1   0.749280880703  -0.544385072857  -0.463077259362
 13 1   0.000002182565  -0.000003055875  -1.035479354628
 14 1  -0.000004419839   0.000006188350   2.096914618271
 15 1   0.292861801958  -0.901341342329   1.533464463764
 16 1  -0.766733820630  -0.557057864604   1.533461214329
 17 1  -0.766733830225   0.557066902396   1.533457926358
 18 1   0.292861786433   0.901350398384   1.533459143715
 19 1   0.947727901453   0.000004533671   1.533463184055
 20 1   1.240594170205  -0.901343062750   0.947736408582
 21 1   0.579570984941  -1.783739342572   0.937775211632
 22 1  -0.473867551878  -1.458405461025   0.947734438856
 23 1  -1.517343639207  -1.102410499847   0.937768781076
 24 1  -1.533463184061   0.000002783699   0.947727901449
 25 1  -1.517343658195   1.102416008722   0.937762274260
 26 1  -0.473867576998   1.458411046688   0.947725830836
 27 1   0.579570954218   1.783744887591   0.937764683382
 28 1   1.240594154680   0.901348677964   0.947731088533
 29 1   1.875535475183   0.000002783678   0.937772679117
 30 1   1.059595632183  -1.458408244725   0.000006537406
 31 1   0.000000015525  -1.802691740713   0.000005320049
 32 1  -1.059595607063  -1.458408262988   0.000002070613
 33 1  -1.714461722083  -0.557062398276  -0.000001969726
 34 1  -1.714461731678   0.557062368724  -0.000005257697
 35 1  -1.059595632183   1.458408244725  -0.000006537406
 36 1  -0.000000015525   1.802691740713  -0.000005320049
 37 1   1.059595607063   1.458408262988  -0.000002070613
 38 1   1.714461722083   0.557062398276   0.000001969726
 39 1   1.714461731678  -0.557062368724   0.000005257697
 40 1   0.473867576998  -1.458411046688  -0.947725830836
 41 1  -0.579570954218  -1.783744887591  -0.937764683382
 42 1  -1.240594154680  -0.901348677964  -0.947731088533
 43 1  -1.875535475183  -0.000002783678  -0.937772679117
 44 1  -1.240594170205   0.901343062750  -0.947736408582
 45 1  -0.579570984941   1.783739342572  -0.937775211632
 46 1   0.473867551878   1.458405461025  -0.947734438856
 47 1   1.517343639207   1.102410499847  -0.937768781076
 48 1   1.533463184061  -0.000002783699  -0.947727901449
 49 1   1.517343658195  -1.102416008722  -0.937762274260
 50 1  -0.292861786433  -0.901350398384  -1.533459143715
 51 1  -0.947727901453  -0.000004533671  -1.533463184055
 52 1  -0.292861801958   0.901341342329  -1.533464463764
 53 1   0.766733820630   0.557057864604  -1.533461214329
 54 1   0.766733830225  -0.557066902396  -1.533457926358
 55 1   0.000004419839  -0.000006188350  -2.096914618271
 56 1  -0.000006732044   0.000009425738   3.193899551051
 57 1   0.296972286993  -0.913995960861   2.621381106134
 58 1  -0.777503506289  -0.564877622736   2.621377811066
 59 1  -0.777503516018   0.564893081594   2.621374476922
 60 1   0.296972271250   0.914011438239   2.621375711375
 61 1   0.961034837600   0.000007744412   2.621379808454
 62 1   1.264879801474  -0.918986046183   2.046630855795
 63 1   0.591714220889  -1.821116247586   2.031903037275
 64 1  -0.483147038232  -1.486954412600   2.046628847507
 65 1  -1.549143386457  -1.125509464527   2.031896471960
 66 1  -1.563487054246   0.000006026464   2.046622182113
 67 1  -1.549143405843   1.125521430766   2.031889828787
 68 1  -0.483147063843   1.486966484149   2.046620070962
 69 1   0.591714189522   1.821128250726   2.031892288395
 70 1   1.264879785645   0.918998147862   2.046625431593
 71 1   1.914836967916   0.000006012973   2.031900451689
 72 1   2.211816032131  -0.913999436881   1.437948166208
 73 1   1.552755835711  -1.821117992167   1.437949454113
 74 1   0.882769137320  -2.716889011977   1.428365180595
 75 1  -0.185782508178  -2.386003359315   1.437947456725
 76 1  -1.252164322242  -2.039514914381   1.437944186479
 77 1  -2.311130422682  -1.679128167574   1.428355385943
 78 1  -2.326640125253  -0.560625871927   1.437937557266
 79 1  -2.326640134910   0.560634319037   1.437934248237
 80 1  -2.311130451604   1.679136558375   1.428345475135
 81 1  -1.252164357371   2.039523380012   1.437932148546
 82 1  -0.185782549275   2.386011843326   1.437933373700
 83 1   0.882769090524   2.716897457830   1.428349144571
 84 1   1.552755804343   1.821126506144   1.437938705233
 85 1   2.211816016388   0.914007962219   1.437942771448
 86 1   2.856707593134   0.000004239938   1.428361323215
 87 1   2.046624472049  -1.486959004900   0.483151439308
 88 1   1.369215489207  -2.386006182106   0.476910371429
 89 1   0.294739701939  -2.735124538751   0.476909136976
 90 1  -0.781742367842  -2.405951126298   0.483148189828
 91 1  -1.846117905407  -2.039517755693   0.476902571661
 92 1  -2.510180471757  -1.125514061866   0.476898474583
 93 1  -2.529769233160   0.000001404034   0.483137404995
 94 1  -2.510180491143   1.125516833427   0.476891831409
 95 1  -1.846117940536   2.039520538700   0.476890533729
 96 1  -0.781742409283   2.405953964496   0.483133989081
 97 1   0.294739654828   2.735127358660   0.476892993336
 98 1   1.369215448110   2.386009020535   0.476896288404
 99 1   2.046624446438   1.486961891849   0.483142662763
100 1   2.692338226504   0.564886782782   0.476904451699
101 1   2.692338236234  -0.564883921548   0.476907785843
102 1   1.846117940536  -2.039520538700  -0.476890533729
103 1   0.781742409283  -2.405953964496  -0.483133989081
104 1  -0.294739654828  -2.735127358660  -0.476892993336
105 1  -1.369215448110  -2.386009020535  -0.476896288404
106 1  -2.046624446438  -1.486961891849  -0.483142662763
107 1  -2.692338226504  -0.564886782782  -0.476904451699
108 1  -2.692338236234   0.564883921548  -0.476907785843
109 1  -2.046624472049   1.486959004900  -0.483151439308
110 1  -1.369215489207   2.386006182106  -0.476910371429
111 1  -0.294739701939   2.735124538751  -0.476909136976
112 1   0.781742367842   2.405951126298  -0.483148189828
113 1   1.846117905407   2.039517755693  -0.476902571661
114 1   2.510180471757   1.125514061866  -0.476898474583
115 1   2.529769233160  -0.000001404034  -0.483137404995
116 1   2.510180491143  -1.125516833427  -0.476891831409
117 1   1.252164357371  -2.039523380012  -1.437932148546
118 1   0.185782549275  -2.386011843326  -1.437933373700
119 1  -0.882769090524  -2.716897457830  -1.428349144571
120 1  -1.552755804343  -1.821126506144  -1.437938705233
121 1  -2.211816016388  -0.914007962219  -1.437942771448
122 1  -2.856707593134  -0.000004239938  -1.428361323215
123 1  -2.211816032131   0.913999436881  -1.437948166208
124 1  -1.552755835711   1.821117992167  -1.437949454113
125 1  -0.882769137320   2.716889011977  -1.428365180595
126 1   0.185782508178   2.386003359315  -1.437947456725
127 1   1.252164322242   2.039514914381  -1.437944186479
128 1   2.311130422682   1.679128167574  -1.428355385943
129 1   2.326640125253   0.560625871927  -1.437937557266
130 1   2.326640134910  -0.560634319037  -1.437934248237
131 1   2.311130451604  -1.679136558375  -1.428345475135
132 1   0.483147063843  -1.486966484149  -2.046620070962
133 1  -0.591714189522  -1.821128250726  -2.031892288395
134 1  -1.264879785645  -0.918998147862  -2.046625431593
135 1  -1.914836967916  -0.000006012973  -2.031900451689
136 1  -1.264879801474   0.918986046183  -2.046630855795
137 1  -0.591714220889   1.821116247586  -2.031903037275
138 1   0.483147038232   1.486954412600  -2.046628847507
139 1   1.549143386457   1.125509464527  -2.031896471960
140 1   1.563487054246  -0.000006026464  -2.046622182113
141 1   1.549143405843  -1.125521430766  -2.031889828787
142 1  -0.296972271250  -0.914011438239  -2.621375711375
143 1  -0.961034837600  -0.000007744412  -2.621379808454
144 1  -0.296972286993   0.913995960861  -2.621381106134
145 1   0.777503506289   0.564877622736  -2.621377811066
146 1   0.777503516018  -0.564893081594  -2.621374476922
147 1   0.000006732044  -0.000009425738  -3.193899551051
